 Gaussian 16, Revision C.01,
 Gaussian 16:  ES64L-G16RevC.01  3-Jul-2019

 ----------------------------------------------------------------------
 #p TDA=(nstates=10, root=1, 50-50) PBE1PBE/6-31G** SCF=(DIIS) Symmetry
 =(Tight) EmpiricalDispersion=(GD3BJ) Integral=(Ultrafine) Population=(
 Regular) Density=(Current) 6D 10F GFInput
 ----------------------------------------------------------------------

 Benzene_Excited_States_TDA_10_Singlets_10_Triplets_PBE0__GD3BJ__Gas_Ph
 ase_Pople_Basis_Sets_6_31G__
 ----------------------------------------------------------------------
 Symbolic Z-matrix:
 Charge =  0 Multiplicity = 1

                         Standard orientation:
 ---------------------------------------------------------------------
 Center     Atomic      Atomic             Coordinates (Angstroms)
 Number     Number       Type             X           Y           Z
 ---------------------------------------------------------------------
      1          6           0       -1.383874   -0.151677   -0.000010
      2          6           0       -0.823254    1.122648   -0.000120
      3          6           0        0.560573    1.274263    0.000120
      4          6           0        1.383896    0.151638    0.000000
      5          6           0        0.823272   -1.122617   -0.000130
      6          6           0       -0.560613   -1.274264    0.000130
      7          1           0       -2.463568   -0.269930    0.000030
      8          1           0       -1.465609    1.998485    0.000120
      9          1           0        0.998008    2.268438   -0.000130
     10          1           0        2.463575    0.269991    0.000030
     11          1           0        1.465589   -1.998476    0.000130
     12          1           0       -0.997997   -2.268457   -0.000120
 ---------------------------------------------------------------------

 SCF Done:  E(RPBE1PBE) =  -231.982656802     A.U. after   10 cycles

 Excitation energies and oscillator strengths:

 Excited State   1:      Triplet-A      4.1580 eV  298.18 nm  f=0.0000  <S**2>=2.000
      17 -> 27         0.10548
      20 -> 22        -0.17140
      20 -> 23         0.46232
      21 -> 22         0.46252
      21 -> 23         0.17138
 This state for optimization and/or second-order correction.
 Total Energy, E(CIS/TDA) =  -231.829854305
 Copying the excited state density for this state as the 1-particle RhoCI density.

 Excited State   2:      Triplet-A      4.8836 eV  253.88 nm  f=0.0000  <S**2>=2.000
      20 -> 22         0.49838
      21 -> 23         0.49824

 Excited State   3:      Triplet-A      4.8836 eV  253.88 nm  f=0.0000  <S**2>=2.000
      20 -> 23         0.49838
      21 -> 22        -0.49824

 Excited State   4:      Triplet-A      5.3147 eV  233.28 nm  f=0.0000  <S**2>=2.000
      20 -> 22        -0.46860
      20 -> 23        -0.17377
      21 -> 22        -0.17365
      21 -> 23         0.46874

 Excited State   5:      Singlet-A      5.6798 eV  218.29 nm  f=0.0000  <S**2>=0.000
      20 -> 22         0.46832
      20 -> 23         0.17357
      21 -> 22         0.17359
      21 -> 23        -0.46830

 Excited State   6:      Singlet-A      6.6784 eV  185.65 nm  f=0.0000  <S**2>=0.000
      20 -> 22        -0.17148
      20 -> 23         0.46261
      21 -> 22         0.46268
      21 -> 23         0.17147

 Excited State   7:      Triplet-A      7.6034 eV  163.06 nm  f=0.0000  <S**2>=2.000
      18 -> 22         0.48968
      19 -> 23         0.49367

 Excited State   8:      Triplet-A      7.6196 eV  162.72 nm  f=0.0000  <S**2>=2.000
      17 -> 22         0.62796
      20 -> 27        -0.11035
      21 -> 27         0.30111

 Excited State   9:      Triplet-A      7.6198 eV  162.71 nm  f=0.0000  <S**2>=2.000
      17 -> 23         0.62782
      20 -> 27         0.30108
      21 -> 27         0.11028

 Excited State  10:      Triplet-A      7.6510 eV  162.05 nm  f=0.0000  <S**2>=2.000
      18 -> 22        -0.10499
      18 -> 23         0.47819
      19 -> 22         0.49328
      19 -> 23         0.10056

 Excited State  11:      Triplet-A      7.6510 eV  162.05 nm  f=0.0000  <S**2>=2.000
      18 -> 22         0.48710
      18 -> 23         0.10024
      19 -> 22         0.10526
      19 -> 23        -0.48449

 Excited State  12:      Triplet-A      7.6753 eV  161.54 nm  f=0.0000  <S**2>=2.000
      18 -> 23         0.49782
      19 -> 22        -0.48151

 Excited State  13:      Singlet-A      7.8987 eV  156.97 nm  f=0.0000  <S**2>=0.000
      18 -> 23        -0.49023
      19 -> 22         0.49386

 Excited State  14:      Singlet-A      8.0093 eV  154.80 nm  f=0.0000  <S**2>=0.000
      18 -> 22        -0.41629
      18 -> 23         0.25121
      19 -> 22         0.25374
      19 -> 23         0.44252

 Excited State  15:      Singlet-A      8.0093 eV  154.80 nm  f=0.0000  <S**2>=0.000
      18 -> 22         0.25020
      18 -> 23         0.43160
      19 -> 22         0.42756
      19 -> 23        -0.25481

 Excited State  16:      Singlet-A      8.0166 eV  154.66 nm  f=0.0066  <S**2>=0.000
      18 -> 22         0.50507
      19 -> 23         0.47978

 Excited State  17:      Singlet-A      8.1306 eV  152.49 nm  f=0.9157  <S**2>=0.000
      20 -> 23         0.47994
      21 -> 22        -0.47986

 Excited State  18:      Singlet-A      8.1307 eV  152.49 nm  f=0.9157  <S**2>=0.000
      20 -> 22         0.47988
      21 -> 23         0.47991

 Excited State  19:      Singlet-A      8.3896 eV  147.78 nm  f=0.0000  <S**2>=0.000
      21 -> 24         0.70198

 Excited State  20:      Singlet-A      8.3897 eV  147.78 nm  f=0.0000  <S**2>=0.000
      20 -> 24         0.70198

 The electronic state is 1-A.
 Alpha  occ. eigenvalues --  -10.23632 -10.23603 -10.23603 -10.23542 -10.23542
 Alpha  occ. eigenvalues --  -10.23513  -0.87481  -0.76375  -0.76374  -0.61598
 Alpha  occ. eigenvalues --   -0.61597  -0.53450  -0.47032  -0.45376  -0.42846
 Alpha  occ. eigenvalues --   -0.42846  -0.37584  -0.34869  -0.34867  -0.25810
 Alpha  occ. eigenvalues --   -0.25809
 Alpha virt. eigenvalues --    0.00831   0.00832   0.10148   0.15835   0.15835
 Alpha virt. eigenvalues --    0.17382   0.19567   0.19568   0.20581   0.31118
 Alpha virt. eigenvalues --    0.31119   0.32824   0.32826   0.47960   0.54679

 Mulliken charges:
               1
     1  C   -0.126479
     2  C   -0.126456
     3  C   -0.126478
     4  C   -0.126457
     5  C   -0.126478
     6  C   -0.126456
     7  H    0.126469
     8  H    0.126469
     9  H    0.126461
    10  H    0.126474
    11  H    0.126465
    12  H    0.126466
 Sum of Mulliken charges =  -0.00000

 Dipole moment (field-independent basis, Debye):
    X=              0.0000    Y=              0.0000    Z=              0.0000  Tot=              0.0000
 Quadrupole moment (field-independent basis, Debye-Ang):
   XX=            -31.5647   YY=            -31.5662   ZZ=            -38.5643
   XY=             -0.0002   XZ=              0.0000   YZ=             -0.0000

 Normal termination of Gaussian 16 at Mon Jul 17 22:09:01 2023.
